# vtk DataFile Version 3.0
vtk output
ASCII
DATASET POLYDATA
POINTS 441 float
-1 -1 -0
-1 -0.9 0
-1 -0.8 0
-1 -0.7 -0
-1 -0.6 0
-1 -0.5 -0
-1 -0.4 -0
-1 -0.3 0
-1 -0.2 -0
-1 -0.1 0
-1 0 0
-1 0.1 0
-1 0.2 -0
-1 0.3 -0
-1 0.4 -0
-1 0.5 -0
-1 0.6 0
-1 0.7 -0
-1 0.8 0
-1 0.9 -0
-1 1 0
-0.9 -1 -0
-0.9 -0.9 0
-0.9 -0.8 -0
-0.9 -0.7 -0
-0.9 -0.6 0
-0.9 -0.5 0
-0.9 -0.4 0
-0.9 -0.3 0
-0.9 -0.2 -0
-0.9 -0.1 -0
-0.9 0 -0
-0.9 0.1 0
-0.9 0.2 -0
-0.9 0.3 -0
-0.9 0.4 -0
-0.9 0.5 0
-0.9 0.6 -0
-0.9 0.7 0
-0.9 0.8 0
-0.9 0.9 -0
-0.9 1 -0
-0.8 -1 0
-0.8 -0.9 0
-0.8 -0.8 -0
-0.8 -0.7 -0
-0.8 -0.6 -0
-0.8 -0.5 0
-0.8 -0.4 0
-0.8 -0.3 -0
-0.8 -0.2 -0
-0.8 -0.1 0
-0.8 0 0
-0.8 0.1 0
-0.8 0.2 -0
-0.8 0.3 0
-0.8 0.4 0
-0.8 0.5 -0
-0.8 0.6 -0
-0.8 0.7 -0
-0.8 0.8 -0
-0.8 0.9 -0
-0.8 1 0
-0.7 -1 -0
-0.7 -0.9 -0
-0.7 -0.8 0
-0.7 -0.7 -0
-0.7 -0.6 -0
-0.7 -0.5 -0
-0.7 -0.4 -0
-0.7 -0.3 0
-0.7 -0.2 -0
-0.7 -0.1 -0
-0.7 0 -0
-0.7 0.1 -0
-0.7 0.2 0
-0.7 0.3 0
-0.7 0.4 -0
-0.7 0.5 -0
-0.7 0.6 -0
-0.7 0.7 -0
-0.7 0.8 -0
-0.7 0.9 0
-0.7 1 0
-0.6 -1 -0
-0.6 -0.9 0
-0.6 -0.8 0
-0.6 -0.7 -0
-0.6 -0.6 -0
-0.6 -0.5 -0
-0.6 -0.4 -0
-0.6 -0.3 -0
-0.6 -0.2 -0
-0.6 -0.1 0
-0.6 0 -0
-0.6 0.1 0
-0.6 0.2 0
-0.6 0.3 -0
-0.6 0.4 0
-0.6 0.5 0
-0.6 0.6 0
-0.6 0.7 -0
-0.6 0.8 -0
-0.6 0.9 0
-0.6 1 -0
-0.5 -1 0
-0.5 -0.9 -0
-0.5 -0.8 0
-0.5 -0.7 -0
-0.5 -0.6 -0
-0.5 -0.5 0
-0.5 -0.4 0
-0.5 -0.3 -0
-0.5 -0.2 0
-0.5 -0.1 -0
-0.5 0 0
-0.5 0.1 0
-0.5 0.2 0
-0.5 0.3 0
-0.5 0.4 -0
-0.5 0.5 -0
-0.5 0.6 0
-0.5 0.7 -0
-0.5 0.8 -0
-0.5 0.9 -0
-0.5 1 0
-0.4 -1 -0
-0.4 -0.9 0
-0.4 -0.8 0
-0.4 -0.7 0
-0.4 -0.6 -0
-0.4 -0.5 -0
-0.4 -0.4 0
-0.4 -0.3 0
-0.4 -0.2 -0
-0.4 -0.1 -0
-0.4 0 0
-0.4 0.1 0
-0.4 0.2 -0
-0.4 0.3 0
-0.4 0.4 -0
-0.4 0.5 0
-0.4 0.6 -0
-0.4 0.7 0
-0.4 0.8 0
-0.4 0.9 0
-0.4 1 0
-0.3 -1 -0
-0.3 -0.9 0
-0.3 -0.8 0
-0.3 -0.7 -0
-0.3 -0.6 -0
-0.3 -0.5 0
-0.3 -0.4 0
-0.3 -0.3 -0
-0.3 -0.2 -0
-0.3 -0.1 -0
-0.3 0 0
-0.3 0.1 0
-0.3 0.2 0
-0.3 0.3 0
-0.3 0.4 -0
-0.3 0.5 -0
-0.3 0.6 0
-0.3 0.7 -0
-0.3 0.8 0
-0.3 0.9 0
-0.3 1 0
-0.2 -1 0
-0.2 -0.9 -0
-0.2 -0.8 -0
-0.2 -0.7 -0
-0.2 -0.6 0
-0.2 -0.5 0
-0.2 -0.4 0
-0.2 -0.3 0
-0.2 -0.2 -0
-0.2 -0.1 0
-0.2 0 0
-0.2 0.1 -0
-0.2 0.2 0
-0.2 0.3 0
-0.2 0.4 0
-0.2 0.5 0
-0.2 0.6 0
-0.2 0.7 -0
-0.2 0.8 -0
-0.2 0.9 0
-0.2 1 0
-0.1 -1 -0
-0.1 -0.9 0
-0.1 -0.8 0
-0.1 -0.7 -0
-0.1 -0.6 -0
-0.1 -0.5 0
-0.1 -0.4 0
-0.1 -0.3 -0
-0.1 -0.2 -0
-0.1 -0.1 0
-0.1 0 0
-0.1 0.1 -0
-0.1 0.2 0
-0.1 0.3 0
-0.1 0.4 0
-0.1 0.5 0
-0.1 0.6 0
-0.1 0.7 0
-0.1 0.8 0
-0.1 0.9 0
-0.1 1 -0
0 -1 0
0 -0.9 0
0 -0.8 0
0 -0.7 0
0 -0.6 -0
0 -0.5 0
0 -0.4 0
0 -0.3 0
0 -0.2 -0
0 -0.1 0
0 0 0
0 0.1 -0
0 0.2 -0
0 0.3 0
0 0.4 0
0 0.5 -0
0 0.6 0
0 0.7 0
0 0.8 -0
0 0.9 -0
0 1 0
0.1 -1 -0
0.1 -0.9 0
0.1 -0.8 0
0.1 -0.7 -0
0.1 -0.6 -0
0.1 -0.5 0
0.1 -0.4 -0
0.1 -0.3 0
0.1 -0.2 -0
0.1 -0.1 -0
0.1 0 -0
0.1 0.1 -0
0.1 0.2 0
0.1 0.3 -0
0.1 0.4 0
0.1 0.5 0
0.1 0.6 0
0.1 0.7 0
0.1 0.8 0
0.1 0.9 0
0.1 1 0
0.2 -1 0
0.2 -0.9 -0
0.2 -0.8 -0
0.2 -0.7 0
0.2 -0.6 0
0.2 -0.5 0
0.2 -0.4 -0
0.2 -0.3 -0
0.2 -0.2 -0
0.2 -0.1 0
0.2 0 0
0.2 0.1 0
0.2 0.2 -0
0.2 0.3 0
0.2 0.4 0
0.2 0.5 0
0.2 0.6 0
0.2 0.7 0
0.2 0.8 -0
0.2 0.9 -0
0.2 1 -0
0.3 -1 0
0.3 -0.9 0
0.3 -0.8 0
0.3 -0.7 -0
0.3 -0.6 0
0.3 -0.5 0
0.3 -0.4 -0
0.3 -0.3 0
0.3 -0.2 -0
0.3 -0.1 0
0.3 0 0
0.3 0.1 0
0.3 0.2 0
0.3 0.3 0
0.3 0.4 0
0.3 0.5 -0
0.3 0.6 0
0.3 0.7 -0
0.3 0.8 -0
0.3 0.9 -0
0.3 1 -0
0.4 -1 -0
0.4 -0.9 0
0.4 -0.8 -0
0.4 -0.7 0
0.4 -0.6 -0
0.4 -0.5 -0
0.4 -0.4 0
0.4 -0.3 -0
0.4 -0.2 -0
0.4 -0.1 -0
0.4 0 0
0.4 0.1 -0
0.4 0.2 0
0.4 0.3 0
0.4 0.4 -0
0.4 0.5 -0
0.4 0.6 -0
0.4 0.7 -0
0.4 0.8 0
0.4 0.9 0
0.4 1 -0
0.5 -1 0
0.5 -0.9 0
0.5 -0.8 0
0.5 -0.7 0
0.5 -0.6 0
0.5 -0.5 -0
0.5 -0.4 -0
0.5 -0.3 0
0.5 -0.2 0
0.5 -0.1 -0
0.5 0 -0
0.5 0.1 -0
0.5 0.2 0
0.5 0.3 0
0.5 0.4 -0
0.5 0.5 0
0.5 0.6 0
0.5 0.7 0
0.5 0.8 -0
0.5 0.9 0
0.5 1 0
0.6 -1 -0
0.6 -0.9 -0
0.6 -0.8 -0
0.6 -0.7 0
0.6 -0.6 0
0.6 -0.5 0
0.6 -0.4 0
0.6 -0.3 -0
0.6 -0.2 0
0.6 -0.1 0
0.6 0 0
0.6 0.1 -0
0.6 0.2 -0
0.6 0.3 0
0.6 0.4 0
0.6 0.5 0
0.6 0.6 -0
0.6 0.7 0
0.6 0.8 -0
0.6 0.9 0
0.6 1 -0
0.7 -1 0
0.7 -0.9 0
0.7 -0.8 -0
0.7 -0.7 -0
0.7 -0.6 -0
0.7 -0.5 0
0.7 -0.4 -0
0.7 -0.3 0
0.7 -0.2 -0
0.7 -0.1 -0
0.7 0 0
0.7 0.1 -0
0.7 0.2 0
0.7 0.3 0
0.7 0.4 0
0.7 0.5 -0
0.7 0.6 0
0.7 0.7 -0
0.7 0.8 0
0.7 0.9 -0
0.7 1 -0
0.8 -1 0
0.8 -0.9 0
0.8 -0.8 -0
0.8 -0.7 0
0.8 -0.6 -0
0.8 -0.5 0
0.8 -0.4 0
0.8 -0.3 0
0.8 -0.2 -0
0.8 -0.1 0
0.8 0 -0
0.8 0.1 -0
0.8 0.2 0
0.8 0.3 0
0.8 0.4 -0
0.8 0.5 0
0.8 0.6 0
0.8 0.7 0
0.8 0.8 0
0.8 0.9 -0
0.8 1 -0
0.9 -1 0
0.9 -0.9 -0
0.9 -0.8 -0
0.9 -0.7 0
0.9 -0.6 0
0.9 -0.5 -0
0.9 -0.4 -0
0.9 -0.3 0
0.9 -0.2 0
0.9 -0.1 -0
0.9 0 0
0.9 0.1 0
0.9 0.2 0
0.9 0.3 -0
0.9 0.4 0
0.9 0.5 0
0.9 0.6 -0
0.9 0.7 0
0.9 0.8 0
0.9 0.9 -0
0.9 1 -0
1 -1 -0
1 -0.9 0
1 -0.8 -0
1 -0.7 -0
1 -0.6 0
1 -0.5 -0
1 -0.4 0
1 -0.3 0
1 -0.2 -0
1 -0.1 -0
1 0 -0
1 0.1 0
1 0.2 0
1 0.3 -0
1 0.4 0
1 0.5 0
1 0.6 0
1 0.7 0
1 0.8 -0
1 0.9 0
1 1 0
POLYGONS 800 3200
3 0 1 21
3 1 21 22
3 1 2 22
3 2 22 23
3 2 3 23
3 3 23 24
3 3 4 24
3 4 24 25
3 4 5 25
3 5 25 26
3 5 6 26
3 6 26 27
3 6 7 27
3 7 27 28
3 7 8 28
3 8 28 29
3 8 9 29
3 9 29 30
3 9 10 30
3 10 30 31
3 10 11 31
3 11 31 32
3 11 12 32
3 12 32 33
3 12 13 33
3 13 33 34
3 13 14 34
3 14 34 35
3 14 15 35
3 15 35 36
3 15 16 36
3 16 36 37
3 16 17 37
3 17 37 38
3 17 18 38
3 18 38 39
3 18 19 39
3 19 39 40
3 19 20 40
3 20 40 41
3 21 22 42
3 22 42 43
3 22 23 43
3 23 43 44
3 23 24 44
3 24 44 45
3 24 25 45
3 25 45 46
3 25 26 46
3 26 46 47
3 26 27 47
3 27 47 48
3 27 28 48
3 28 48 49
3 28 29 49
3 29 49 50
3 29 30 50
3 30 50 51
3 30 31 51
3 31 51 52
3 31 32 52
3 32 52 53
3 32 33 53
3 33 53 54
3 33 34 54
3 34 54 55
3 34 35 55
3 35 55 56
3 35 36 56
3 36 56 57
3 36 37 57
3 37 57 58
3 37 38 58
3 38 58 59
3 38 39 59
3 39 59 60
3 39 40 60
3 40 60 61
3 40 41 61
3 41 61 62
3 42 43 63
3 43 63 64
3 43 44 64
3 44 64 65
3 44 45 65
3 45 65 66
3 45 46 66
3 46 66 67
3 46 47 67
3 47 67 68
3 47 48 68
3 48 68 69
3 48 49 69
3 49 69 70
3 49 50 70
3 50 70 71
3 50 51 71
3 51 71 72
3 51 52 72
3 52 72 73
3 52 53 73
3 53 73 74
3 53 54 74
3 54 74 75
3 54 55 75
3 55 75 76
3 55 56 76
3 56 76 77
3 56 57 77
3 57 77 78
3 57 58 78
3 58 78 79
3 58 59 79
3 59 79 80
3 59 60 80
3 60 80 81
3 60 61 81
3 61 81 82
3 61 62 82
3 62 82 83
3 63 64 84
3 64 84 85
3 64 65 85
3 65 85 86
3 65 66 86
3 66 86 87
3 66 67 87
3 67 87 88
3 67 68 88
3 68 88 89
3 68 69 89
3 69 89 90
3 69 70 90
3 70 90 91
3 70 71 91
3 71 91 92
3 71 72 92
3 72 92 93
3 72 73 93
3 73 93 94
3 73 74 94
3 74 94 95
3 74 75 95
3 75 95 96
3 75 76 96
3 76 96 97
3 76 77 97
3 77 97 98
3 77 78 98
3 78 98 99
3 78 79 99
3 79 99 100
3 79 80 100
3 80 100 101
3 80 81 101
3 81 101 102
3 81 82 102
3 82 102 103
3 82 83 103
3 83 103 104
3 84 85 105
3 85 105 106
3 85 86 106
3 86 106 107
3 86 87 107
3 87 107 108
3 87 88 108
3 88 108 109
3 88 89 109
3 89 109 110
3 89 90 110
3 90 110 111
3 90 91 111
3 91 111 112
3 91 92 112
3 92 112 113
3 92 93 113
3 93 113 114
3 93 94 114
3 94 114 115
3 94 95 115
3 95 115 116
3 95 96 116
3 96 116 117
3 96 97 117
3 97 117 118
3 97 98 118
3 98 118 119
3 98 99 119
3 99 119 120
3 99 100 120
3 100 120 121
3 100 101 121
3 101 121 122
3 101 102 122
3 102 122 123
3 102 103 123
3 103 123 124
3 103 104 124
3 104 124 125
3 105 106 126
3 106 126 127
3 106 107 127
3 107 127 128
3 107 108 128
3 108 128 129
3 108 109 129
3 109 129 130
3 109 110 130
3 110 130 131
3 110 111 131
3 111 131 132
3 111 112 132
3 112 132 133
3 112 113 133
3 113 133 134
3 113 114 134
3 114 134 135
3 114 115 135
3 115 135 136
3 115 116 136
3 116 136 137
3 116 117 137
3 117 137 138
3 117 118 138
3 118 138 139
3 118 119 139
3 119 139 140
3 119 120 140
3 120 140 141
3 120 121 141
3 121 141 142
3 121 122 142
3 122 142 143
3 122 123 143
3 123 143 144
3 123 124 144
3 124 144 145
3 124 125 145
3 125 145 146
3 126 127 147
3 127 147 148
3 127 128 148
3 128 148 149
3 128 129 149
3 129 149 150
3 129 130 150
3 130 150 151
3 130 131 151
3 131 151 152
3 131 132 152
3 132 152 153
3 132 133 153
3 133 153 154
3 133 134 154
3 134 154 155
3 134 135 155
3 135 155 156
3 135 136 156
3 136 156 157
3 136 137 157
3 137 157 158
3 137 138 158
3 138 158 159
3 138 139 159
3 139 159 160
3 139 140 160
3 140 160 161
3 140 141 161
3 141 161 162
3 141 142 162
3 142 162 163
3 142 143 163
3 143 163 164
3 143 144 164
3 144 164 165
3 144 145 165
3 145 165 166
3 145 146 166
3 146 166 167
3 147 148 168
3 148 168 169
3 148 149 169
3 149 169 170
3 149 150 170
3 150 170 171
3 150 151 171
3 151 171 172
3 151 152 172
3 152 172 173
3 152 153 173
3 153 173 174
3 153 154 174
3 154 174 175
3 154 155 175
3 155 175 176
3 155 156 176
3 156 176 177
3 156 157 177
3 157 177 178
3 157 158 178
3 158 178 179
3 158 159 179
3 159 179 180
3 159 160 180
3 160 180 181
3 160 161 181
3 161 181 182
3 161 162 182
3 162 182 183
3 162 163 183
3 163 183 184
3 163 164 184
3 164 184 185
3 164 165 185
3 165 185 186
3 165 166 186
3 166 186 187
3 166 167 187
3 167 187 188
3 168 169 189
3 169 189 190
3 169 170 190
3 170 190 191
3 170 171 191
3 171 191 192
3 171 172 192
3 172 192 193
3 172 173 193
3 173 193 194
3 173 174 194
3 174 194 195
3 174 175 195
3 175 195 196
3 175 176 196
3 176 196 197
3 176 177 197
3 177 197 198
3 177 178 198
3 178 198 199
3 178 179 199
3 179 199 200
3 179 180 200
3 180 200 201
3 180 181 201
3 181 201 202
3 181 182 202
3 182 202 203
3 182 183 203
3 183 203 204
3 183 184 204
3 184 204 205
3 184 185 205
3 185 205 206
3 185 186 206
3 186 206 207
3 186 187 207
3 187 207 208
3 187 188 208
3 188 208 209
3 189 190 210
3 190 210 211
3 190 191 211
3 191 211 212
3 191 192 212
3 192 212 213
3 192 193 213
3 193 213 214
3 193 194 214
3 194 214 215
3 194 195 215
3 195 215 216
3 195 196 216
3 196 216 217
3 196 197 217
3 197 217 218
3 197 198 218
3 198 218 219
3 198 199 219
3 199 219 220
3 199 200 220
3 200 220 221
3 200 201 221
3 201 221 222
3 201 202 222
3 202 222 223
3 202 203 223
3 203 223 224
3 203 204 224
3 204 224 225
3 204 205 225
3 205 225 226
3 205 206 226
3 206 226 227
3 206 207 227
3 207 227 228
3 207 208 228
3 208 228 229
3 208 209 229
3 209 229 230
3 210 211 231
3 211 231 232
3 211 212 232
3 212 232 233
3 212 213 233
3 213 233 234
3 213 214 234
3 214 234 235
3 214 215 235
3 215 235 236
3 215 216 236
3 216 236 237
3 216 217 237
3 217 237 238
3 217 218 238
3 218 238 239
3 218 219 239
3 219 239 240
3 219 220 240
3 220 240 241
3 220 221 241
3 221 241 242
3 221 222 242
3 222 242 243
3 222 223 243
3 223 243 244
3 223 224 244
3 224 244 245
3 224 225 245
3 225 245 246
3 225 226 246
3 226 246 247
3 226 227 247
3 227 247 248
3 227 228 248
3 228 248 249
3 228 229 249
3 229 249 250
3 229 230 250
3 230 250 251
3 231 232 252
3 232 252 253
3 232 233 253
3 233 253 254
3 233 234 254
3 234 254 255
3 234 235 255
3 235 255 256
3 235 236 256
3 236 256 257
3 236 237 257
3 237 257 258
3 237 238 258
3 238 258 259
3 238 239 259
3 239 259 260
3 239 240 260
3 240 260 261
3 240 241 261
3 241 261 262
3 241 242 262
3 242 262 263
3 242 243 263
3 243 263 264
3 243 244 264
3 244 264 265
3 244 245 265
3 245 265 266
3 245 246 266
3 246 266 267
3 246 247 267
3 247 267 268
3 247 248 268
3 248 268 269
3 248 249 269
3 249 269 270
3 249 250 270
3 250 270 271
3 250 251 271
3 251 271 272
3 252 253 273
3 253 273 274
3 253 254 274
3 254 274 275
3 254 255 275
3 255 275 276
3 255 256 276
3 256 276 277
3 256 257 277
3 257 277 278
3 257 258 278
3 258 278 279
3 258 259 279
3 259 279 280
3 259 260 280
3 260 280 281
3 260 261 281
3 261 281 282
3 261 262 282
3 262 282 283
3 262 263 283
3 263 283 284
3 263 264 284
3 264 284 285
3 264 265 285
3 265 285 286
3 265 266 286
3 266 286 287
3 266 267 287
3 267 287 288
3 267 268 288
3 268 288 289
3 268 269 289
3 269 289 290
3 269 270 290
3 270 290 291
3 270 271 291
3 271 291 292
3 271 272 292
3 272 292 293
3 273 274 294
3 274 294 295
3 274 275 295
3 275 295 296
3 275 276 296
3 276 296 297
3 276 277 297
3 277 297 298
3 277 278 298
3 278 298 299
3 278 279 299
3 279 299 300
3 279 280 300
3 280 300 301
3 280 281 301
3 281 301 302
3 281 282 302
3 282 302 303
3 282 283 303
3 283 303 304
3 283 284 304
3 284 304 305
3 284 285 305
3 285 305 306
3 285 286 306
3 286 306 307
3 286 287 307
3 287 307 308
3 287 288 308
3 288 308 309
3 288 289 309
3 289 309 310
3 289 290 310
3 290 310 311
3 290 291 311
3 291 311 312
3 291 292 312
3 292 312 313
3 292 293 313
3 293 313 314
3 294 295 315
3 295 315 316
3 295 296 316
3 296 316 317
3 296 297 317
3 297 317 318
3 297 298 318
3 298 318 319
3 298 299 319
3 299 319 320
3 299 300 320
3 300 320 321
3 300 301 321
3 301 321 322
3 301 302 322
3 302 322 323
3 302 303 323
3 303 323 324
3 303 304 324
3 304 324 325
3 304 305 325
3 305 325 326
3 305 306 326
3 306 326 327
3 306 307 327
3 307 327 328
3 307 308 328
3 308 328 329
3 308 309 329
3 309 329 330
3 309 310 330
3 310 330 331
3 310 311 331
3 311 331 332
3 311 312 332
3 312 332 333
3 312 313 333
3 313 333 334
3 313 314 334
3 314 334 335
3 315 316 336
3 316 336 337
3 316 317 337
3 317 337 338
3 317 318 338
3 318 338 339
3 318 319 339
3 319 339 340
3 319 320 340
3 320 340 341
3 320 321 341
3 321 341 342
3 321 322 342
3 322 342 343
3 322 323 343
3 323 343 344
3 323 324 344
3 324 344 345
3 324 325 345
3 325 345 346
3 325 326 346
3 326 346 347
3 326 327 347
3 327 347 348
3 327 328 348
3 328 348 349
3 328 329 349
3 329 349 350
3 329 330 350
3 330 350 351
3 330 331 351
3 331 351 352
3 331 332 352
3 332 352 353
3 332 333 353
3 333 353 354
3 333 334 354
3 334 354 355
3 334 335 355
3 335 355 356
3 336 337 357
3 337 357 358
3 337 338 358
3 338 358 359
3 338 339 359
3 339 359 360
3 339 340 360
3 340 360 361
3 340 341 361
3 341 361 362
3 341 342 362
3 342 362 363
3 342 343 363
3 343 363 364
3 343 344 364
3 344 364 365
3 344 345 365
3 345 365 366
3 345 346 366
3 346 366 367
3 346 347 367
3 347 367 368
3 347 348 368
3 348 368 369
3 348 349 369
3 349 369 370
3 349 350 370
3 350 370 371
3 350 351 371
3 351 371 372
3 351 352 372
3 352 372 373
3 352 353 373
3 353 373 374
3 353 354 374
3 354 374 375
3 354 355 375
3 355 375 376
3 355 356 376
3 356 376 377
3 357 358 378
3 358 378 379
3 358 359 379
3 359 379 380
3 359 360 380
3 360 380 381
3 360 361 381
3 361 381 382
3 361 362 382
3 362 382 383
3 362 363 383
3 363 383 384
3 363 364 384
3 364 384 385
3 364 365 385
3 365 385 386
3 365 366 386
3 366 386 387
3 366 367 387
3 367 387 388
3 367 368 388
3 368 388 389
3 368 369 389
3 369 389 390
3 369 370 390
3 370 390 391
3 370 371 391
3 371 391 392
3 371 372 392
3 372 392 393
3 372 373 393
3 373 393 394
3 373 374 394
3 374 394 395
3 374 375 395
3 375 395 396
3 375 376 396
3 376 396 397
3 376 377 397
3 377 397 398
3 378 379 399
3 379 399 400
3 379 380 400
3 380 400 401
3 380 381 401
3 381 401 402
3 381 382 402
3 382 402 403
3 382 383 403
3 383 403 404
3 383 384 404
3 384 404 405
3 384 385 405
3 385 405 406
3 385 386 406
3 386 406 407
3 386 387 407
3 387 407 408
3 387 388 408
3 388 408 409
3 388 389 409
3 389 409 410
3 389 390 410
3 390 410 411
3 390 391 411
3 391 411 412
3 391 392 412
3 392 412 413
3 392 393 413
3 393 413 414
3 393 394 414
3 394 414 415
3 394 395 415
3 395 415 416
3 395 396 416
3 396 416 417
3 396 397 417
3 397 417 418
3 397 398 418
3 398 418 419
3 399 400 420
3 400 420 421
3 400 401 421
3 401 421 422
3 401 402 422
3 402 422 423
3 402 403 423
3 403 423 424
3 403 404 424
3 404 424 425
3 404 405 425
3 405 425 426
3 405 406 426
3 406 426 427
3 406 407 427
3 407 427 428
3 407 408 428
3 408 428 429
3 408 409 429
3 409 429 430
3 409 410 430
3 410 430 431
3 410 411 431
3 411 431 432
3 411 412 432
3 412 432 433
3 412 413 433
3 413 433 434
3 413 414 434
3 414 434 435
3 414 415 435
3 415 435 436
3 415 416 436
3 416 436 437
3 416 417 437
3 417 437 438
3 417 418 438
3 418 438 439
3 418 419 439
3 419 439 440

POINT_DATA 441
SCALARS distance_from float
LOOKUP_TABLE default
0
0.0507434
0.0951021
0.140825
0.186799
0.232685
0.278274
0.32339
0.367861
0.411506
0.454126
0.495502
0.535385
0.573492
0.609492
0.642998
0.673532
0.700492
0.723077
0.740194
0.750381
0.0507434
0.0603753
0.0952067
0.138313
0.183512
0.229178
0.274736
0.319888
0.364416
0.408119
0.45079
0.492203
0.532104
0.570206
0.606172
0.639604
0.670011
0.696752
0.718938
0.735151
0.742541
0.0951021
0.0952067
0.114239
0.14742
0.187242
0.229881
0.273616
0.317598
0.36133
0.404457
0.446684
0.487728
0.527295
0.565067
0.600678
0.633701
0.663604
0.689697
0.711017
0.726123
0.7326
0.140825
0.138313
0.14742
0.169795
0.201452
0.238498
0.278419
0.319733
0.361531
0.403203
0.444288
0.484394
0.523148
0.560174
0.59506
0.627335
0.656431
0.681633
0.701995
0.716217
0.722271
0.186799
0.183512
0.187242
0.201452
0.225004
0.255349
0.290104
0.3275
0.366306
0.405649
0.444875
0.48345
0.5209
0.556768
0.590584
0.621831
0.649918
0.674131
0.693581
0.70711
0.712899
0.232685
0.229178
0.229881
0.238498
0.255349
0.279203
0.308321
0.341069
0.376114
0.412418
0.449162
0.485678
0.521381
0.555729
0.588188
0.6182
0.645153
0.668348
0.68695
0.699902
0.705492
0.278274
0.274736
0.273616
0.278419
0.290104
0.308321
0.332023
0.359934
0.390829
0.423637
0.457453
0.491504
0.525112
0.557658
0.588547
0.617179
0.642927
0.665102
0.68291
0.695353
0.700773
0.32339
0.319888
0.317598
0.319733
0.3275
0.341069
0.359934
0.383221
0.409926
0.439057
0.469702
0.50104
0.532329
0.562889
0.592071
0.619241
0.643754
0.664924
0.68198
0.693954
0.699217
0.367861
0.364416
0.36133
0.361531
0.366306
0.376114
0.390829
0.409926
0.43265
0.458157
0.485589
0.514127
0.543003
0.571495
0.598917
0.624603
0.647889
0.668085
0.684427
0.695962
0.701074
0.411506
0.408119
0.404457
0.403203
0.405649
0.412418
0.423637
0.439057
0.458157
0.480254
0.504591
0.530386
0.556875
0.583317
0.609003
0.633241
0.655348
0.674622
0.690294
0.701417
0.706383
0.454126
0.45079
0.446684
0.444288
0.444875
0.449162
0.457453
0.469702
0.485589
0.504591
0.526059
0.549276
0.573503
0.598
0.622043
0.644923
0.665936
0.684364
0.699426
0.710171
0.714997
0.495502
0.492203
0.487728
0.484394
0.48345
0.485678
0.491504
0.50104
0.514127
0.530386
0.549276
0.570153
0.592314
0.615034
0.637586
0.659244
0.679285
0.696969
0.711499
0.721909
0.726608
0.535385
0.532104
0.527295
0.523148
0.5209
0.521381
0.525112
0.532329
0.543003
0.556875
0.573503
0.592314
0.61265
0.633808
0.655059
0.675667
0.694888
0.711957
0.726051
0.736186
0.740773
0.573492
0.570206
0.565067
0.560174
0.556768
0.555729
0.557658
0.562889
0.571495
0.583317
0.598
0.615034
0.633808
0.653638
0.673803
0.693558
0.712136
0.728741
0.742516
0.75245
0.756948
0.609492
0.606172
0.600678
0.59506
0.590584
0.588188
0.588547
0.592071
0.598917
0.609003
0.622043
0.637586
0.655059
0.673803
0.693107
0.712216
0.730341
0.746652
0.760246
0.770068
0.774509
0.642998
0.639604
0.633701
0.627335
0.621831
0.6182
0.617179
0.619241
0.624603
0.633241
0.644923
0.659244
0.675667
0.693558
0.712216
0.730882
0.748749
0.764946
0.778514
0.788334
0.792758
0.673532
0.670011
0.663604
0.656431
0.649918
0.645153
0.642927
0.643754
0.647889
0.655348
0.665936
0.679285
0.694888
0.712136
0.730341
0.748749
0.766538
0.782802
0.796514
0.806463
0.81092
0.700492
0.696752
0.689697
0.681633
0.674131
0.668348
0.665102
0.664924
0.668085
0.674622
0.684364
0.696969
0.711957
0.728741
0.746652
0.764946
0.782802
0.799289
0.813317
0.823547
0.828103
0.723077
0.718938
0.711017
0.701995
0.693581
0.68695
0.68291
0.68198
0.684427
0.690294
0.699426
0.711499
0.726051
0.742516
0.760246
0.778514
0.796514
0.813317
0.827792
0.838465
0.843192
0.740194
0.735151
0.726123
0.716217
0.70711
0.699902
0.695353
0.693954
0.695962
0.701417
0.710171
0.721909
0.736186
0.75245
0.770068
0.788334
0.806463
0.823547
0.838465
0.849651
0.854533
0.750381
0.742541
0.7326
0.722271
0.712899
0.705492
0.700773
0.699217
0.701074
0.706383
0.714997
0.726608
0.740773
0.756948
0.774509
0.792758
0.81092
0.828103
0.843192
0.854533
0.858409
